<UPF version="2.0.1">
  <PP_INFO>

 This pseudopotential file has been produced using the code
 ONCVPSP  (Optimized Norm-Conservinng Vanderbilt PSeudopotential)
 scalar-relativistic version 3.2.2 08/07/2015 by D. R. Hamann
 The code is available through a link at URL www.mat-simresearch.com.
 Documentation with the package provides a full discription of the
 input data below.


 While it is not required under the terms of the GNU GPL, it is
 suggested that you cite D. R. Hamann, Phys. Rev. B 88, 085117 (2013)
 in any publication using these pseudopotentials.

    <PP_INPUTFILE>
# ATOM AND REFERENCE CONFIGURATION
# atsym  z   nc   nv     iexc    psfile
  Ar 18.00    3    2       4      upf
#
#   n    l    f        energy (Ha)
    1    0    2.00
    2    0    2.00
    2    1    6.00
    3    0    2.00
    3    1    6.00
#
# PSEUDOPOTENTIAL AND OPTIMIZATION
# lmax
    1
#
#   l,   rc,     ep,   ncon, nbas, qcut
    0    2.68   -0.89    5    8    7.98
    1    1.78   -0.38    5    8    7.45
#
# LOCAL POTENTIAL
# lloc, lpopt,  rc(5),   dvloc0
    4    5      1.40       0.00
#
# VANDERBILT-KLEINMAN-BYLANDER PROJECTORs
# l, nproj, debl
    0    2    0.8809
    1    2    3.2074
#
# MODEL CORE CHARGE
# icmod, fcfact
    0    0.00
#
# LOG DERIVATIVE ANALYSIS
# epsh1, epsh2, depsh
   -5.00    3.00    0.02
#
# OUTPUT GRID
# rlmax, drl
    6.00    0.01
#
# TEST CONFIGURATIONS
# ncnf
    0
# nvcnf
#   n    l    f
    </PP_INPUTFILE>
  </PP_INFO>
  <!--                               -->
  <!-- END OF HUMAN READABLE SECTION -->
  <!--                               -->
    <PP_HEADER
       generated="Generated using ONCVPSP code by D. R. Hamann"
       author="anonymous"
       date="160823"
       comment=""
       element="Ar"
       pseudo_type="NC"
       relativistic="scalar"
       is_ultrasoft="F"
       is_paw="F"
       is_coulomb="F"
       has_so="F"
       has_wfc="F"
       has_gipaw="F"
       core_correction="F"
       functional="PBE"
       z_valence="    8.00"
       total_psenergy="  -4.23876477811E+01"
       wfc_cutoff="   5.00000000000E+01"
       r_cut="3.20"
       l_max="1"
       l_local="-1"
       mesh_size="   938"
       number_of_wfc="2"
       number_of_proj="4"/>
 <PP_MESH>
   <PP_R type="real"  size=" 938" columns="8">
    0.0000    0.0100    0.0200    0.0300    0.0400    0.0500    0.0600    0.0700
    0.0800    0.0900    0.1000    0.1100    0.1200    0.1300    0.1400    0.1500
    0.1600    0.1700    0.1800    0.1900    0.2000    0.2100    0.2200    0.2300
    0.2400    0.2500    0.2600    0.2700    0.2800    0.2900    0.3000    0.3100
    0.3200    0.3300    0.3400    0.3500    0.3600    0.3700    0.3800    0.3900
    0.4000    0.4100    0.4200    0.4300    0.4400    0.4500    0.4600    0.4700
    0.4800    0.4900    0.5000    0.5100    0.5200    0.5300    0.5400    0.5500
    0.5600    0.5700    0.5800    0.5900    0.6000    0.6100    0.6200    0.6300
    0.6400    0.6500    0.6600    0.6700    0.6800    0.6900    0.7000    0.7100
    0.7200    0.7300    0.7400    0.7500    0.7600    0.7700    0.7800    0.7900
    0.8000    0.8100    0.8200    0.8300    0.8400    0.8500    0.8600    0.8700
    0.8800    0.8900    0.9000    0.9100    0.9200    0.9300    0.9400    0.9500
    0.9600    0.9700    0.9800    0.9900    1.0000    1.0100    1.0200    1.0300
    1.0400    1.0500    1.0600    1.0700    1.0800    1.0900    1.1000    1.1100
    1.1200    1.1300    1.1400    1.1500    1.1600    1.1700    1.1800    1.1900
    1.2000    1.2100    1.2200    1.2300    1.2400    1.2500    1.2600    1.2700
    1.2800    1.2900    1.3000    1.3100    1.3200    1.3300    1.3400    1.3500
    1.3600    1.3700    1.3800    1.3900    1.4000    1.4100    1.4200    1.4300
    1.4400    1.4500    1.4600    1.4700    1.4800    1.4900    1.5000    1.5100
    1.5200    1.5300    1.5400    1.5500    1.5600    1.5700    1.5800    1.5900
    1.6000    1.6100    1.6200    1.6300    1.6400    1.6500    1.6600    1.6700
    1.6800    1.6900    1.7000    1.7100    1.7200    1.7300    1.7400    1.7500
    1.7600    1.7700    1.7800    1.7900    1.8000    1.8100    1.8200    1.8300
    1.8400    1.8500    1.8600    1.8700    1.8800    1.8900    1.9000    1.9100
    1.9200    1.9300    1.9400    1.9500    1.9600    1.9700    1.9800    1.9900
    2.0000    2.0100    2.0200    2.0300    2.0400    2.0500    2.0600    2.0700
    2.0800    2.0900    2.1000    2.1100    2.1200    2.1300    2.1400    2.1500
    2.1600    2.1700    2.1800    2.1900    2.2000    2.2100    2.2200    2.2300
    2.2400    2.2500    2.2600    2.2700    2.2800    2.2900    2.3000    2.3100
    2.3200    2.3300    2.3400    2.3500    2.3600    2.3700    2.3800    2.3900
    2.4000    2.4100    2.4200    2.4300    2.4400    2.4500    2.4600    2.4700
    2.4800    2.4900    2.5000    2.5100    2.5200    2.5300    2.5400    2.5500
    2.5600    2.5700    2.5800    2.5900    2.6000    2.6100    2.6200    2.6300
    2.6400    2.6500    2.6600    2.6700    2.6800    2.6900    2.7000    2.7100
    2.7200    2.7300    2.7400    2.7500    2.7600    2.7700    2.7800    2.7900
    2.8000    2.8100    2.8200    2.8300    2.8400    2.8500    2.8600    2.8700
    2.8800    2.8900    2.9000    2.9100    2.9200    2.9300    2.9400    2.9500
    2.9600    2.9700    2.9800    2.9900    3.0000    3.0100    3.0200    3.0300
    3.0400    3.0500    3.0600    3.0700    3.0800    3.0900    3.1000    3.1100
    3.1200    3.1300    3.1400    3.1500    3.1600    3.1700    3.1800    3.1900
    3.2000    3.2100    3.2200    3.2300    3.2400    3.2500    3.2600    3.2700
    3.2800    3.2900    3.3000    3.3100    3.3200    3.3300    3.3400    3.3500
    3.3600    3.3700    3.3800    3.3900    3.4000    3.4100    3.4200    3.4300
    3.4400    3.4500    3.4600    3.4700    3.4800    3.4900    3.5000    3.5100
    3.5200    3.5300    3.5400    3.5500    3.5600    3.5700    3.5800    3.5900
    3.6000    3.6100    3.6200    3.6300    3.6400    3.6500    3.6600    3.6700
    3.6800    3.6900    3.7000    3.7100    3.7200    3.7300    3.7400    3.7500
    3.7600    3.7700    3.7800    3.7900    3.8000    3.8100    3.8200    3.8300
    3.8400    3.8500    3.8600    3.8700    3.8800    3.8900    3.9000    3.9100
    3.9200    3.9300    3.9400    3.9500    3.9600    3.9700    3.9800    3.9900
    4.0000    4.0100    4.0200    4.0300    4.0400    4.0500    4.0600    4.0700
    4.0800    4.0900    4.1000    4.1100    4.1200    4.1300    4.1400    4.1500
    4.1600    4.1700    4.1800    4.1900    4.2000    4.2100    4.2200    4.2300
    4.2400    4.2500    4.2600    4.2700    4.2800    4.2900    4.3000    4.3100
    4.3200    4.3300    4.3400    4.3500    4.3600    4.3700    4.3800    4.3900
    4.4000    4.4100    4.4200    4.4300    4.4400    4.4500    4.4600    4.4700
    4.4800    4.4900    4.5000    4.5100    4.5200    4.5300    4.5400    4.5500
    4.5600    4.5700    4.5800    4.5900    4.6000    4.6100    4.6200    4.6300
    4.6400    4.6500    4.6600    4.6700    4.6800    4.6900    4.7000    4.7100
    4.7200    4.7300    4.7400    4.7500    4.7600    4.7700    4.7800    4.7900
    4.8000    4.8100    4.8200    4.8300    4.8400    4.8500    4.8600    4.8700
    4.8800    4.8900    4.9000    4.9100    4.9200    4.9300    4.9400    4.9500
    4.9600    4.9700    4.9800    4.9900    5.0000    5.0100    5.0200    5.0300
    5.0400    5.0500    5.0600    5.0700    5.0800    5.0900    5.1000    5.1100
    5.1200    5.1300    5.1400    5.1500    5.1600    5.1700    5.1800    5.1900
    5.2000    5.2100    5.2200    5.2300    5.2400    5.2500    5.2600    5.2700
    5.2800    5.2900    5.3000    5.3100    5.3200    5.3300    5.3400    5.3500
    5.3600    5.3700    5.3800    5.3900    5.4000    5.4100    5.4200    5.4300
    5.4400    5.4500    5.4600    5.4700    5.4800    5.4900    5.5000    5.5100
    5.5200    5.5300    5.5400    5.5500    5.5600    5.5700    5.5800    5.5900
    5.6000    5.6100    5.6200    5.6300    5.6400    5.6500    5.6600    5.6700
    5.6800    5.6900    5.7000    5.7100    5.7200    5.7300    5.7400    5.7500
    5.7600    5.7700    5.7800    5.7900    5.8000    5.8100    5.8200    5.8300
    5.8400    5.8500    5.8600    5.8700    5.8800    5.8900    5.9000    5.9100
    5.9200    5.9300    5.9400    5.9500    5.9600    5.9700    5.9800    5.9900
    6.0000    6.0100    6.0200    6.0300    6.0400    6.0500    6.0600    6.0700
    6.0800    6.0900    6.1000    6.1100    6.1200    6.1300    6.1400    6.1500
    6.1600    6.1700    6.1800    6.1900    6.2000    6.2100    6.2200    6.2300
    6.2400    6.2500    6.2600    6.2700    6.2800    6.2900    6.3000    6.3100
    6.3200    6.3300    6.3400    6.3500    6.3600    6.3700    6.3800    6.3900
    6.4000    6.4100    6.4200    6.4300    6.4400    6.4500    6.4600    6.4700
    6.4800    6.4900    6.5000    6.5100    6.5200    6.5300    6.5400    6.5500
    6.5600    6.5700    6.5800    6.5900    6.6000    6.6100    6.6200    6.6300
    6.6400    6.6500    6.6600    6.6700    6.6800    6.6900    6.7000    6.7100
    6.7200    6.7300    6.7400    6.7500    6.7600    6.7700    6.7800    6.7900
    6.8000    6.8100    6.8200    6.8300    6.8400    6.8500    6.8600    6.8700
    6.8800    6.8900    6.9000    6.9100    6.9200    6.9300    6.9400    6.9500
    6.9600    6.9700    6.9800    6.9900    7.0000    7.0100    7.0200    7.0300
    7.0400    7.0500    7.0600    7.0700    7.0800    7.0900    7.1000    7.1100
    7.1200    7.1300    7.1400    7.1500    7.1600    7.1700    7.1800    7.1900
    7.2000    7.2100    7.2200    7.2300    7.2400    7.2500    7.2600    7.2700
    7.2800    7.2900    7.3000    7.3100    7.3200    7.3300    7.3400    7.3500
    7.3600    7.3700    7.3800    7.3900    7.4000    7.4100    7.4200    7.4300
    7.4400    7.4500    7.4600    7.4700    7.4800    7.4900    7.5000    7.5100
    7.5200    7.5300    7.5400    7.5500    7.5600    7.5700    7.5800    7.5900
    7.6000    7.6100    7.6200    7.6300    7.6400    7.6500    7.6600    7.6700
    7.6800    7.6900    7.7000    7.7100    7.7200    7.7300    7.7400    7.7500
    7.7600    7.7700    7.7800    7.7900    7.8000    7.8100    7.8200    7.8300
    7.8400    7.8500    7.8600    7.8700    7.8800    7.8900    7.9000    7.9100
    7.9200    7.9300    7.9400    7.9500    7.9600    7.9700    7.9800    7.9900
    8.0000    8.0100    8.0200    8.0300    8.0400    8.0500    8.0600    8.0700
    8.0800    8.0900    8.1000    8.1100    8.1200    8.1300    8.1400    8.1500
    8.1600    8.1700    8.1800    8.1900    8.2000    8.2100    8.2200    8.2300
    8.2400    8.2500    8.2600    8.2700    8.2800    8.2900    8.3000    8.3100
    8.3200    8.3300    8.3400    8.3500    8.3600    8.3700    8.3800    8.3900
    8.4000    8.4100    8.4200    8.4300    8.4400    8.4500    8.4600    8.4700
    8.4800    8.4900    8.5000    8.5100    8.5200    8.5300    8.5400    8.5500
    8.5600    8.5700    8.5800    8.5900    8.6000    8.6100    8.6200    8.6300
    8.6400    8.6500    8.6600    8.6700    8.6800    8.6900    8.7000    8.7100
    8.7200    8.7300    8.7400    8.7500    8.7600    8.7700    8.7800    8.7900
    8.8000    8.8100    8.8200    8.8300    8.8400    8.8500    8.8600    8.8700
    8.8800    8.8900    8.9000    8.9100    8.9200    8.9300    8.9400    8.9500
    8.9600    8.9700    8.9800    8.9900    9.0000    9.0100    9.0200    9.0300
    9.0400    9.0500    9.0600    9.0700    9.0800    9.0900    9.1000    9.1100
    9.1200    9.1300    9.1400    9.1500    9.1600    9.1700    9.1800    9.1900
    9.2000    9.2100    9.2200    9.2300    9.2400    9.2500    9.2600    9.2700
    9.2800    9.2900    9.3000    9.3100    9.3200    9.3300    9.3400    9.3500
    9.3600    9.3700
   </PP_R>
   <PP_RAB type="real"  size=" 938" columns="8">
    0.0100    0.0100    0.0100    0.0100    0.0100    0.0100    0.0100    0.0100
    0.0100    0.0100    0.0100    0.0100    0.0100    0.0100    0.0100    0.0100
    0.0100    0.0100    0.0100    0.0100    0.0100    0.0100    0.0100    0.0100
    0.0100    0.0100    0.0100    0.0100    0.0100    0.0100    0.0100    0.0100
    0.0100    0.0100    0.0100    0.0100    0.0100    0.0100    0.0100    0.0100
    0.0100    0.0100    0.0100    0.0100    0.0100    0.0100    0.0100    0.0100
    0.0100    0.0100    0.0100    0.0100    0.0100    0.0100    0.0100    0.0100
    0.0100    0.0100    0.0100    0.0100    0.0100    0.0100    0.0100    0.0100
    0.0100    0.0100    0.0100    0.0100    0.0100    0.0100    0.0100    0.0100
    0.0100    0.0100    0.0100    0.0100    0.0100    0.0100    0.0100    0.0100
    0.0100    0.0100    0.0100    0.0100    0.0100    0.0100    0.0100    0.0100
    0.0100    0.0100    0.0100    0.0100    0.0100    0.0100    0.0100    0.0100
    0.0100    0.0100    0.0100    0.0100    0.0100    0.0100    0.0100    0.0100
    0.0100    0.0100    0.0100    0.0100    0.0100    0.0100    0.0100    0.0100
    0.0100    0.0100    0.0100    0.0100    0.0100    0.0100    0.0100    0.0100
    0.0100    0.0100    0.0100    0.0100    0.0100    0.0100    0.0100    0.0100
    0.0100    0.0100    0.0100    0.0100    0.0100    0.0100    0.0100    0.0100
    0.0100    0.0100    0.0100    0.0100    0.0100    0.0100    0.0100    0.0100
    0.0100    0.0100    0.0100    0.0100    0.0100    0.0100    0.0100    0.0100
    0.0100    0.0100    0.0100    0.0100    0.0100    0.0100    0.0100    0.0100
    0.0100    0.0100    0.0100    0.0100    0.0100    0.0100    0.0100    0.0100
    0.0100    0.0100    0.0100    0.0100    0.0100    0.0100    0.0100    0.0100
    0.0100    0.0100    0.0100    0.0100    0.0100    0.0100    0.0100    0.0100
    0.0100    0.0100    0.0100    0.0100    0.0100    0.0100    0.0100    0.0100
    0.0100    0.0100    0.0100    0.0100    0.0100    0.0100    0.0100    0.0100
    0.0100    0.0100    0.0100    0.0100    0.0100    0.0100    0.0100    0.0100
    0.0100    0.0100    0.0100    0.0100    0.0100    0.0100    0.0100    0.0100
    0.0100    0.0100    0.0100    0.0100    0.0100    0.0100    0.0100    0.0100
    0.0100    0.0100    0.0100    0.0100    0.0100    0.0100    0.0100    0.0100
    0.0100    0.0100    0.0100    0.0100    0.0100    0.0100    0.0100    0.0100
    0.0100    0.0100    0.0100    0.0100    0.0100    0.0100    0.0100    0.0100
    0.0100    0.0100    0.0100    0.0100    0.0100    0.0100    0.0100    0.0100
    0.0100    0.0100    0.0100    0.0100    0.0100    0.0100    0.0100    0.0100
    0.0100    0.0100    0.0100    0.0100    0.0100    0.0100    0.0100    0.0100
    0.0100    0.0100    0.0100    0.0100    0.0100    0.0100    0.0100    0.0100
    0.0100    0.0100    0.0100    0.0100    0.0100    0.0100    0.0100    0.0100
    0.0100    0.0100    0.0100    0.0100    0.0100    0.0100    0.0100    0.0100
    0.0100    0.0100    0.0100    0.0100    0.0100    0.0100    0.0100    0.0100
    0.0100    0.0100    0.0100    0.0100    0.0100    0.0100    0.0100    0.0100
    0.0100    0.0100    0.0100    0.0100    0.0100    0.0100    0.0100    0.0100
    0.0100    0.0100    0.0100    0.0100    0.0100    0.0100    0.0100    0.0100
    0.0100    0.0100    0.0100    0.0100    0.0100    0.0100    0.0100    0.0100
    0.0100    0.0100    0.0100    0.0100    0.0100    0.0100    0.0100    0.0100
    0.0100    0.0100    0.0100    0.0100    0.0100    0.0100    0.0100    0.0100
    0.0100    0.0100    0.0100    0.0100    0.0100    0.0100    0.0100    0.0100
    0.0100    0.0100    0.0100    0.0100    0.0100    0.0100    0.0100    0.0100
    0.0100    0.0100    0.0100    0.0100    0.0100    0.0100    0.0100    0.0100
    0.0100    0.0100    0.0100    0.0100    0.0100    0.0100    0.0100    0.0100
    0.0100    0.0100    0.0100    0.0100    0.0100    0.0100    0.0100    0.0100
    0.0100    0.0100    0.0100    0.0100    0.0100    0.0100    0.0100    0.0100
    0.0100    0.0100    0.0100    0.0100    0.0100    0.0100    0.0100    0.0100
    0.0100    0.0100    0.0100    0.0100    0.0100    0.0100    0.0100    0.0100
    0.0100    0.0100    0.0100    0.0100    0.0100    0.0100    0.0100    0.0100
    0.0100    0.0100    0.0100    0.0100    0.0100    0.0100    0.0100    0.0100
    0.0100    0.0100    0.0100    0.0100    0.0100    0.0100    0.0100    0.0100
    0.0100    0.0100    0.0100    0.0100    0.0100    0.0100    0.0100    0.0100
    0.0100    0.0100    0.0100    0.0100    0.0100    0.0100    0.0100    0.0100
    0.0100    0.0100    0.0100    0.0100    0.0100    0.0100    0.0100    0.0100
    0.0100    0.0100    0.0100    0.0100    0.0100    0.0100    0.0100    0.0100
    0.0100    0.0100    0.0100    0.0100    0.0100    0.0100    0.0100    0.0100
    0.0100    0.0100    0.0100    0.0100    0.0100    0.0100    0.0100    0.0100
    0.0100    0.0100    0.0100    0.0100    0.0100    0.0100    0.0100    0.0100
    0.0100    0.0100    0.0100    0.0100    0.0100    0.0100    0.0100    0.0100
    0.0100    0.0100    0.0100    0.0100    0.0100    0.0100    0.0100    0.0100
    0.0100    0.0100    0.0100    0.0100    0.0100    0.0100    0.0100    0.0100
    0.0100    0.0100    0.0100    0.0100    0.0100    0.0100    0.0100    0.0100
    0.0100    0.0100    0.0100    0.0100    0.0100    0.0100    0.0100    0.0100
    0.0100    0.0100    0.0100    0.0100    0.0100    0.0100    0.0100    0.0100
    0.0100    0.0100    0.0100    0.0100    0.0100    0.0100    0.0100    0.0100
    0.0100    0.0100    0.0100    0.0100    0.0100    0.0100    0.0100    0.0100
    0.0100    0.0100    0.0100    0.0100    0.0100    0.0100    0.0100    0.0100
    0.0100    0.0100    0.0100    0.0100    0.0100    0.0100    0.0100    0.0100
    0.0100    0.0100    0.0100    0.0100    0.0100    0.0100    0.0100    0.0100
    0.0100    0.0100    0.0100    0.0100    0.0100    0.0100    0.0100    0.0100
    0.0100    0.0100    0.0100    0.0100    0.0100    0.0100    0.0100    0.0100
    0.0100    0.0100    0.0100    0.0100    0.0100    0.0100    0.0100    0.0100
    0.0100    0.0100    0.0100    0.0100    0.0100    0.0100    0.0100    0.0100
    0.0100    0.0100    0.0100    0.0100    0.0100    0.0100    0.0100    0.0100
    0.0100    0.0100    0.0100    0.0100    0.0100    0.0100    0.0100    0.0100
    0.0100    0.0100    0.0100    0.0100    0.0100    0.0100    0.0100    0.0100
    0.0100    0.0100    0.0100    0.0100    0.0100    0.0100    0.0100    0.0100
    0.0100    0.0100    0.0100    0.0100    0.0100    0.0100    0.0100    0.0100
    0.0100    0.0100    0.0100    0.0100    0.0100    0.0100    0.0100    0.0100
    0.0100    0.0100    0.0100    0.0100    0.0100    0.0100    0.0100    0.0100
    0.0100    0.0100    0.0100    0.0100    0.0100    0.0100    0.0100    0.0100
    0.0100    0.0100    0.0100    0.0100    0.0100    0.0100    0.0100    0.0100
    0.0100    0.0100    0.0100    0.0100    0.0100    0.0100    0.0100    0.0100
    0.0100    0.0100    0.0100    0.0100    0.0100    0.0100    0.0100    0.0100
    0.0100    0.0100    0.0100    0.0100    0.0100    0.0100    0.0100    0.0100
    0.0100    0.0100    0.0100    0.0100    0.0100    0.0100    0.0100    0.0100
    0.0100    0.0100    0.0100    0.0100    0.0100    0.0100    0.0100    0.0100
    0.0100    0.0100    0.0100    0.0100    0.0100    0.0100    0.0100    0.0100
    0.0100    0.0100    0.0100    0.0100    0.0100    0.0100    0.0100    0.0100
    0.0100    0.0100    0.0100    0.0100    0.0100    0.0100    0.0100    0.0100
    0.0100    0.0100    0.0100    0.0100    0.0100    0.0100    0.0100    0.0100
    0.0100    0.0100    0.0100    0.0100    0.0100    0.0100    0.0100    0.0100
    0.0100    0.0100    0.0100    0.0100    0.0100    0.0100    0.0100    0.0100
    0.0100    0.0100    0.0100    0.0100    0.0100    0.0100    0.0100    0.0100
    0.0100    0.0100    0.0100    0.0100    0.0100    0.0100    0.0100    0.0100
    0.0100    0.0100    0.0100    0.0100    0.0100    0.0100    0.0100    0.0100
    0.0100    0.0100    0.0100    0.0100    0.0100    0.0100    0.0100    0.0100
    0.0100    0.0100    0.0100    0.0100    0.0100    0.0100    0.0100    0.0100
    0.0100    0.0100    0.0100    0.0100    0.0100    0.0100    0.0100    0.0100
    0.0100    0.0100    0.0100    0.0100    0.0100    0.0100    0.0100    0.0100
    0.0100    0.0100    0.0100    0.0100    0.0100    0.0100    0.0100    0.0100
    0.0100    0.0100    0.0100    0.0100    0.0100    0.0100    0.0100    0.0100
    0.0100    0.0100    0.0100    0.0100    0.0100    0.0100    0.0100    0.0100
    0.0100    0.0100    0.0100    0.0100    0.0100    0.0100    0.0100    0.0100
    0.0100    0.0100    0.0100    0.0100    0.0100    0.0100    0.0100    0.0100
    0.0100    0.0100    0.0100    0.0100    0.0100    0.0100    0.0100    0.0100
    0.0100    0.0100    0.0100    0.0100    0.0100    0.0100    0.0100    0.0100
    0.0100    0.0100    0.0100    0.0100    0.0100    0.0100    0.0100    0.0100
    0.0100    0.0100    0.0100    0.0100    0.0100    0.0100    0.0100    0.0100
    0.0100    0.0100    0.0100    0.0100    0.0100    0.0100    0.0100    0.0100
    0.0100    0.0100    0.0100    0.0100    0.0100    0.0100    0.0100    0.0100
    0.0100    0.0100    0.0100    0.0100    0.0100    0.0100    0.0100    0.0100
    0.0100    0.0100    0.0100    0.0100    0.0100    0.0100    0.0100    0.0100
    0.0100    0.0100
   </PP_RAB>
 </PP_MESH>
  <PP_LOCAL type="real"  size=" 938" columns="4">
   -2.5258651703E+01   -2.5261735455E+01   -2.5270501872E+01   -2.5283804837E+01
   -2.5299913200E+01   -2.5316799531E+01   -2.5332411703E+01   -2.5344897345E+01
   -2.5352751255E+01   -2.5354881089E+01   -2.5350605015E+01   -2.5339603460E+01
   -2.5321847313E+01   -2.5297520312E+01   -2.5266947228E+01   -2.5230533913E+01
   -2.5188721120E+01   -2.5141951508E+01   -2.5090647905E+01   -2.5035200462E+01
   -2.4975960401E+01   -2.4913238358E+01   -2.4847305720E+01   -2.4778397729E+01
   -2.4706717493E+01   -2.4632440297E+01   -2.4555717823E+01   -2.4476682063E+01
   -2.4395448786E+01   -2.4312120534E+01   -2.4226789132E+01   -2.4139537755E+01
   -2.4050442601E+01   -2.3959574213E+01   -2.3866998509E+01   -2.3772777575E+01
   -2.3676970264E+01   -2.3579632628E+01   -2.3480818245E+01   -2.3380578440E+01
   -2.3278962440E+01   -2.3176017480E+01   -2.3071788866E+01   -2.2966320016E+01
   -2.2859652488E+01   -2.2751825993E+01   -2.2642878405E+01   -2.2532845774E+01
   -2.2421762340E+01   -2.2309660548E+01   -2.2196571081E+01   -2.2082522890E+01
   -2.1967543240E+01   -2.1851657768E+01   -2.1734890547E+01   -2.1617264170E+01
   -2.1498799838E+01   -2.1379517470E+01   -2.1259435818E+01   -2.1138572601E+01
   -2.1016944646E+01   -2.0894568048E+01   -2.0771458328E+01   -2.0647630615E+01
   -2.0523099824E+01   -2.0397880846E+01   -2.0271988739E+01   -2.0145438915E+01
   -2.0018247342E+01   -1.9890430717E+01   -1.9762006659E+01   -1.9632993873E+01
   -1.9503412312E+01   -1.9373283322E+01   -1.9242629778E+01   -1.9111476189E+01
   -1.8979848799E+01   -1.8847775660E+01   -1.8715286683E+01   -1.8582413674E+01
   -1.8449190343E+01   -1.8315652297E+01   -1.8181837005E+01   -1.8047783755E+01
   -1.7913533583E+01   -1.7779129187E+01   -1.7644614827E+01   -1.7510036215E+01
   -1.7375440380E+01   -1.7240875537E+01   -1.7106390940E+01   -1.6972036724E+01
   -1.6837863754E+01   -1.6703923454E+01   -1.6570267648E+01   -1.6436948394E+01
   -1.6304017818E+01   -1.6171527949E+01   -1.6039530564E+01   -1.5908077028E+01
   -1.5777218146E+01   -1.5647004016E+01   -1.5517483890E+01   -1.5388706045E+01
   -1.5260717654E+01   -1.5133564673E+01   -1.5007291730E+01   -1.4881942024E+01
   -1.4757557232E+01   -1.4634177426E+01   -1.4511840993E+01   -1.4390584565E+01
   -1.4270442961E+01   -1.4151449127E+01   -1.4033634090E+01   -1.3917026916E+01
   -1.3801654673E+01   -1.3687542400E+01   -1.3574713085E+01   -1.3463187635E+01
   -1.3352984870E+01   -1.3244121500E+01   -1.3136612122E+01   -1.3030469207E+01
   -1.2925703097E+01   -1.2822322001E+01   -1.2720331993E+01   -1.2619737011E+01
   -1.2520538854E+01   -1.2422737186E+01   -1.2326329534E+01   -1.2231311284E+01
   -1.2137675687E+01   -1.2045413847E+01   -1.1954514728E+01   -1.1864965143E+01
   -1.1776749745E+01   -1.1689851031E+01   -1.1604249304E+01   -1.1519922753E+01
   -1.1436847261E+01   -1.1354996408E+01   -1.1274342606E+01   -1.1194858011E+01
   -1.1116515639E+01   -1.1039289383E+01   -1.0963153813E+01   -1.0888084287E+01
   -1.0814056921E+01   -1.0741048589E+01   -1.0669036915E+01   -1.0598000266E+01
   -1.0527917740E+01   -1.0458769154E+01   -1.0390535022E+01   -1.0323196544E+01
   -1.0256735582E+01   -1.0191134638E+01   -1.0126376826E+01   -1.0062445853E+01
   -9.9993259798E+00   -9.9370020010E+00   -9.8754592070E+00   -9.8146833537E+00
   -9.7546606284E+00   -9.6953776155E+00   -9.6368212621E+00   -9.5789788430E+00
   -9.5218379264E+00   -9.4653863399E+00   -9.4096121382E+00   -9.3545035709E+00
   -9.3000490533E+00   -9.2462371344E+00   -9.1930564872E+00   -9.1404958609E+00
   -9.0885440614E+00   -9.0371899720E+00   -8.9864224866E+00   -8.9362306814E+00
   -8.8866040435E+00   -8.8375324751E+00   -8.7890063529E+00   -8.7410164586E+00
   -8.6935536298E+00   -8.6466086024E+00   -8.6001723596E+00   -8.5542363632E+00
   -8.5087922890E+00   -8.4638318638E+00   -8.4193469942E+00   -8.3753298057E+00
   -8.3317726205E+00   -8.2886679309E+00   -8.2460083947E+00   -8.2037868387E+00
   -8.1619962565E+00   -8.1206298021E+00   -8.0796807854E+00   -8.0391426694E+00
   -7.9990090661E+00   -7.9592737324E+00   -7.9199305670E+00   -7.8809736063E+00
   -7.8423970207E+00   -7.8041951115E+00   -7.7663623069E+00   -7.7288931589E+00
   -7.6917823398E+00   -7.6550246385E+00   -7.6186149577E+00   -7.5825483104E+00
   -7.5468198166E+00   -7.5114247002E+00   -7.4763582863E+00   -7.4416159977E+00
   -7.4071933520E+00   -7.3730859591E+00   -7.3392895179E+00   -7.3057998139E+00
   -7.2726127164E+00   -7.2397241757E+00   -7.2071302208E+00   -7.1748269569E+00
   -7.1428105628E+00   -7.1110772889E+00   -7.0796234545E+00   -7.0484454462E+00
   -7.0175397152E+00   -6.9869027758E+00   -6.9565312030E+00   -6.9264216311E+00
   -6.8965707514E+00   -6.8669753110E+00   -6.8376321106E+00   -6.8085380036E+00
   -6.7796898939E+00   -6.7510847350E+00   -6.7227195285E+00   -6.6945913228E+00
   -6.6666972119E+00   -6.6390343342E+00   -6.6115998714E+00   -6.5843910480E+00
   -6.5574051294E+00   -6.5306394220E+00   -6.5040912717E+00   -6.4777580634E+00
   -6.4516372203E+00   -6.4257262030E+00   -6.4000225093E+00   -6.3745236733E+00
   -6.3492272648E+00   -6.3241308891E+00   -6.2992321866E+00   -6.2745288318E+00
   -6.2500185336E+00   -6.2256990347E+00   -6.2015681112E+00   -6.1776235722E+00
   -6.1538632599E+00   -6.1302850491E+00   -6.1068868469E+00   -6.0836665929E+00
   -6.0606222584E+00   -6.0377518464E+00   -6.0150533921E+00   -5.9925249612E+00
   -5.9701646497E+00   -5.9479705833E+00   -5.9259409164E+00   -5.9040738310E+00
   -5.8823675354E+00   -5.8608202618E+00   -5.8394302681E+00   -5.8181958371E+00
   -5.7971152786E+00   -5.7761869265E+00   -5.7554091386E+00   -5.7347802961E+00
   -5.7142988031E+00   -5.6939630864E+00   -5.6737715951E+00   -5.6537228005E+00
   -5.6338151953E+00   -5.6140472932E+00   -5.5944176288E+00   -5.5749247573E+00
   -5.5555672537E+00   -5.5363437128E+00   -5.5172527489E+00   -5.4982929951E+00
   -5.4794631035E+00   -5.4607617444E+00   -5.4421876063E+00   -5.4237393954E+00
   -5.4054158355E+00   -5.3872156676E+00   -5.3691376493E+00   -5.3511805552E+00
   -5.3333431760E+00   -5.3156243186E+00   -5.2980228056E+00   -5.2805374752E+00
   -5.2631671809E+00   -5.2459107912E+00   -5.2287671894E+00   -5.2117352734E+00
   -5.1948139553E+00   -5.1780021614E+00   -5.1612988317E+00   -5.1447029201E+00
   -5.1282133936E+00   -5.1118292327E+00   -5.0955494306E+00   -5.0793729934E+00
   -5.0632989399E+00   -5.0473263011E+00   -5.0314541204E+00   -5.0156814529E+00
   -5.0000073658E+00   -4.9844309377E+00   -4.9689512588E+00   -4.9535674304E+00
   -4.9382785652E+00   -4.9230837865E+00   -4.9079822284E+00   -4.8929730359E+00
   -4.8780553640E+00   -4.8632283782E+00   -4.8484912541E+00   -4.8338431773E+00
   -4.8192833432E+00   -4.8048109567E+00   -4.7904252323E+00   -4.7761253941E+00
   -4.7619106751E+00   -4.7477803177E+00   -4.7337335731E+00   -4.7197697012E+00
   -4.7058879710E+00   -4.6920876597E+00   -4.6783680531E+00   -4.6647284454E+00
   -4.6511681389E+00   -4.6376864440E+00   -4.6242826791E+00   -4.6109561704E+00
   -4.5977062520E+00   -4.5845322654E+00   -4.5714335599E+00   -4.5584094920E+00
   -4.5454594255E+00   -4.5325827315E+00   -4.5197787883E+00   -4.5070469810E+00
   -4.4943867018E+00   -4.4817973495E+00   -4.4692783298E+00   -4.4568290549E+00
   -4.4444489436E+00   -4.4321374212E+00   -4.4198939192E+00   -4.4077178754E+00
   -4.3956087339E+00   -4.3835659448E+00   -4.3715889642E+00   -4.3596772541E+00
   -4.3478302824E+00   -4.3360475228E+00   -4.3243284546E+00   -4.3126725628E+00
   -4.3010793379E+00   -4.2895482759E+00   -4.2780788780E+00   -4.2666706511E+00
   -4.2553231070E+00   -4.2440357627E+00   -4.2328081406E+00   -4.2216397678E+00
   -4.2105301767E+00   -4.1994789042E+00   -4.1884854925E+00   -4.1775494883E+00
   -4.1666704430E+00   -4.1558479129E+00   -4.1450814587E+00   -4.1343706456E+00
   -4.1237150434E+00   -4.1131142264E+00   -4.1025677731E+00   -4.0920752664E+00
   -4.0816362933E+00   -4.0712504453E+00   -4.0609173178E+00   -4.0506365104E+00
   -4.0404076266E+00   -4.0302302743E+00   -4.0201040648E+00   -4.0100286136E+00
   -4.0000035401E+00   -3.9900284673E+00   -3.9801030221E+00   -3.9702268351E+00
   -3.9603995404E+00   -3.9506207759E+00   -3.9408901829E+00   -3.9312074064E+00
   -3.9215720948E+00   -3.9119838998E+00   -3.9024424769E+00   -3.8929474844E+00
   -3.8834985844E+00   -3.8740954420E+00   -3.8647377256E+00   -3.8554251068E+00
   -3.8461572604E+00   -3.8369338644E+00   -3.8277545995E+00   -3.8186191499E+00
   -3.8095272027E+00   -3.8004784477E+00   -3.7914725779E+00   -3.7825092892E+00