CRYSTAL
PRIMVEC 1
       14.8409700000        0.0065032000       -0.0040923500
        0.0022426600        5.0786660000        0.0032594400
       -0.0086895400        0.0201909400       31.6063900000
CONVVEC 1
       14.8409700000        0.0065032000       -0.0040923500
        0.0022426600        5.0786660000        0.0032594400
       -0.0086895400        0.0201909400       31.6063900000
PRIMCOORD 1
  240    1
  28         0.0130720021        0.0004089927        0.0111537045        0.0000000000        0.0000000000        0.0000000000
  28         2.9502937186        0.0328219731       31.6037797822        0.0000000000        0.0000000000        0.0000000000
  28        11.9201487541        5.0822543384        0.0020580874        0.0000000000        0.0000000000        0.0000000000
  28        11.8744993781        0.0158495418       10.5226666380        0.0000000000        0.0000000000        0.0000000000
  28        14.8134404560        0.0261997637       21.0568672406        0.0000000000        0.0000000000        0.0000000000
  28         5.9177699389        5.0896164753       21.0792927379        0.0000000000        0.0000000000        0.0000000000
  28         8.8986835426        5.0856393945        5.2665566894        0.0000000000        0.0000000000        0.0000000000
  28         8.9093768500        5.0989949260       26.3445058886        0.0000000000        0.0000000000        0.0000000000
  28         1.4531642430        2.5483774940        0.0059756773        0.0000000000        0.0000000000        0.0000000000
  28        10.4057551531        2.5560914695       10.5309923342        0.0000000000        0.0000000000        0.0000000000
  28         7.4057304901        2.5499180356       21.0817398601        0.0000000000        0.0000000000        0.0000000000
  28         4.4673983190        2.5438992261        5.2682342946        0.0000000000        0.0000000000        0.0000000000
  28         4.4759617940        2.5597333716       15.8082726974        0.0000000000        0.0000000000        0.0000000000
  28         7.4357484825        2.5458465530       15.8096908516        0.0000000000        0.0000000000        0.0000000000
  28         7.4503554544        2.5599778437       26.3352823799        0.0000000000        0.0000000000        0.0000000000
  28        10.3785925074        2.5587155344       26.3487593753        0.0000000000        0.0000000000        0.0000000000
  26         5.8890972869        0.0197263932       -0.0012020107        0.0000000000        0.0000000000        0.0000000000
  26         9.0268694984        5.0876518969       10.5380233992        0.0000000000        0.0000000000        0.0000000000
  26         2.9574899425        5.0909592494       21.0706604143        0.0000000000        0.0000000000        0.0000000000
  26         8.8861579238        5.0920789625       21.0765153650        0.0000000000        0.0000000000        0.0000000000
  26         3.0083749374        5.0820559212        5.2731740869        0.0000000000        0.0000000000        0.0000000000
  26         3.0119682967        0.0198608949       15.7990500121        0.0000000000        0.0000000000        0.0000000000
  26        11.8721875952        5.0923990306       15.8009350850        0.0000000000        0.0000000000        0.0000000000
  26         2.8988591750        5.0950320165       26.3405048753        0.0000000000        0.0000000000        0.0000000000
  26         4.3489788967        2.5832550202       31.6053469243        0.0000000000        0.0000000000        0.0000000000
  26         7.3842806003        2.5770682785       31.6039362097        0.0000000000        0.0000000000        0.0000000000
  26         4.4546185288        2.5437289162       21.0743960324        0.0000000000        0.0000000000        0.0000000000
  26        10.3735432518        2.5557476576       21.0713792774        0.0000000000        0.0000000000        0.0000000000
  26        13.3285738522        2.5590748235       21.0718616031        0.0000000000        0.0000000000        0.0000000000
  26        10.2908770184        2.5462712371        5.2634361297        0.0000000000        0.0000000000        0.0000000000
  26         1.5149384706        2.5591062471       15.8011248140        0.0000000000        0.0000000000        0.0000000000
  26         1.4091719313        2.5539273421       26.3439626475        0.0000000000        0.0000000000        0.0000000000
  25         8.9230175335        0.0366931606       31.5855402810        0.0000000000        0.0000000000        0.0000000000
  25         0.0100325662        0.0075230335       10.5272952933        0.0000000000        0.0000000000        0.0000000000
  25         5.9732174620        0.0095091897       10.5460682798        0.0000000000        0.0000000000        0.0000000000
  25         5.9537726736        0.0088578532        5.2716646417        0.0000000000        0.0000000000        0.0000000000
  25        11.8791394216        5.0862210561        5.2528073660        0.0000000000        0.0000000000        0.0000000000
  25         0.0041774667        0.0137564992       15.7962732016        0.0000000000        0.0000000000        0.0000000000
  25         5.9663682242        5.0866729853       15.8112217280        0.0000000000        0.0000000000        0.0000000000
  25         5.9612484098        5.0956021164       26.3398811805        0.0000000000        0.0000000000        0.0000000000
  25        10.4187389483        2.5706362299       31.5927592007        0.0000000000        0.0000000000        0.0000000000
  25         7.4691345276        2.5466336184       10.5485166251        0.0000000000        0.0000000000        0.0000000000
  25        13.3504162140        2.5576247448       10.5129866415        0.0000000000        0.0000000000        0.0000000000
  25         1.5135273988        2.5381427144        5.2562769754        0.0000000000        0.0000000000        0.0000000000
  25        13.3793157047        2.5496304681        5.2543681328        0.0000000000        0.0000000000        0.0000000000
  25        10.3856496890        2.5544050603       15.7982939544        0.0000000000        0.0000000000        0.0000000000
  25         4.4566771026        2.5562110324       26.3409104702        0.0000000000        0.0000000000        0.0000000000
  25        13.3105454737        2.5604869167       26.3464973178        0.0000000000        0.0000000000        0.0000000000
  30         2.9882125626        0.0098087469       10.5352296650        0.0000000000        0.0000000000        0.0000000000
  30        11.8475567398        0.0194006187       21.0666893601        0.0000000000        0.0000000000        0.0000000000
  30         0.0426903337        0.0053941211        5.2653292366        0.0000000000        0.0000000000        0.0000000000
  30         8.9040660865        0.0140959259       15.8013075111        0.0000000000        0.0000000000        0.0000000000
  30        14.7674491471        5.0989027984       26.3382743063        0.0000000000        0.0000000000        0.0000000000
  30        11.8601620863        5.0978026327       26.3408144435        0.0000000000        0.0000000000        0.0000000000
  30        13.3746899111        2.5447470004       -0.0009204557        0.0000000000        0.0000000000        0.0000000000
  30         1.6059040448        2.5497181001       10.5360405782        0.0000000000        0.0000000000        0.0000000000
  30         4.4402765497        2.5505290602       10.5362701363        0.0000000000        0.0000000000        0.0000000000
  30         1.4716634852        2.5530541496       21.0714958455        0.0000000000        0.0000000000        0.0000000000
  30         7.4098578531        2.5454890586        5.2687189750        0.0000000000        0.0000000000        0.0000000000
  30        13.3574055532        2.5567239635       15.7989922608        0.0000000000        0.0000000000        0.0000000000
  11         0.0286969213        1.7257144744        7.9129971748        0.0000000000        0.0000000000        0.0000000000
  11         3.0273946806        1.6513325669        7.9861438327        0.0000000000        0.0000000000        0.0000000000
  11         5.9521699756        1.7595858049        7.8657126609        0.0000000000        0.0000000000        0.0000000000
  11         8.8856162450        1.6456840265        7.8600256635        0.0000000000        0.0000000000        0.0000000000
  11        11.8457812347        1.6996298847        7.9438850746        0.0000000000        0.0000000000        0.0000000000
  11         0.0072824785        1.7425350519       18.4515905923        0.0000000000        0.0000000000        0.0000000000
  11         2.9572703959        1.7015606294       18.4230944330        0.0000000000        0.0000000000        0.0000000000
  11         5.9242270586        1.7303327110       18.4325660105        0.0000000000        0.0000000000        0.0000000000
  11         8.8536033983        1.6983672596       18.4093595881        0.0000000000        0.0000000000        0.0000000000
  11        11.8921079682        1.6743327173       18.4433356723        0.0000000000        0.0000000000        0.0000000000
  11        14.8252335463        1.7157124393       29.0194994574        0.0000000000        0.0000000000        0.0000000000
  11         2.9400574259        1.7008837988       29.0360768648        0.0000000000        0.0000000000        0.0000000000
  11         5.9568067033        1.7427122558       28.9543902948        0.0000000000        0.0000000000        0.0000000000
  11         8.8819907088        1.7666875916       28.8852968764        0.0000000000        0.0000000000        0.0000000000
  11        11.8790683826        1.6738804472       28.9915872411        0.0000000000        0.0000000000        0.0000000000
  11         1.4953182191        4.2078867848        7.9340028804        0.0000000000        0.0000000000        0.0000000000
  11         4.4776271910        4.2086824113        7.9279651383        0.0000000000        0.0000000000        0.0000000000
  11         7.4562856795        4.2385066503        7.8592399903        0.0000000000        0.0000000000        0.0000000000
  11        10.4135115857        4.1916715652        7.9451847537        0.0000000000        0.0000000000        0.0000000000
  11        13.3616445511        4.3094302266        7.9012406628        0.0000000000        0.0000000000        0.0000000000
  11         1.4756739570        4.2395994405       18.4815815791        0.0000000000        0.0000000000        0.0000000000
  11         4.5012931813        4.2324274445       18.4470810304        0.0000000000        0.0000000000        0.0000000000
  11         7.4208130580        4.2433104710       18.4462189341        0.0000000000        0.0000000000        0.0000000000
  11        10.3597597695        4.2501755676       18.4388695895        0.0000000000        0.0000000000        0.0000000000
  11        13.3229739950        4.2377560972       18.4452815468        0.0000000000        0.0000000000        0.0000000000
  11         1.4554408782        4.2677927566       29.0059907086        0.0000000000        0.0000000000        0.0000000000
  11         4.4217392252        4.2801203873       29.0083720840        0.0000000000        0.0000000000        0.0000000000
  11         7.4497061604        4.2525463108       28.9308099087        0.0000000000        0.0000000000        0.0000000000
  11        10.4347127834        4.2911010133       28.8899022224        0.0000000000        0.0000000000        0.0000000000
  11        13.3519544652        4.2496892336       28.9942248074        0.0000000000        0.0000000000        0.0000000000
  11         1.4962901868        0.7965244549        2.5934329265        0.0000000000        0.0000000000        0.0000000000
  11         4.4280487251        0.8829276369        2.6246015805        0.0000000000        0.0000000000        0.0000000000
  11         7.4324555477        0.8898231569        2.6835443606        0.0000000000        0.0000000000        0.0000000000
  11        10.3976318451        0.8442963024        2.6256787646        0.0000000000        0.0000000000        0.0000000000
  11        13.3750644973        0.8684568596        2.5801177920        0.0000000000        0.0000000000        0.0000000000
  11         1.5035731395        0.8922692980       13.1152228875        0.0000000000        0.0000000000        0.0000000000
  11         4.4949291233        0.9119897249       13.1612821016        0.0000000000        0.0000000000        0.0000000000
  11         7.4834316447        0.8380851365       13.2333572634        0.0000000000        0.0000000000        0.0000000000
  11        10.4045655982        0.9062921417       13.1218459946        0.0000000000        0.0000000000        0.0000000000
  11        13.3342315037        0.8547849037       13.1475536161        0.0000000000        0.0000000000        0.0000000000
  11         1.4329529474        0.8804024218       23.6905696860        0.0000000000        0.0000000000        0.0000000000
  11         4.4753271546        0.8167903857       23.6750237141        0.0000000000        0.0000000000        0.0000000000
  11         7.4266252126        0.8509172226       23.6981253987        0.0000000000        0.0000000000        0.0000000000
  11        10.4017774152        0.8550871795       23.7638698749        0.0000000000        0.0000000000        0.0000000000
  11        13.3190561894        0.8384047123       23.7191842673        0.0000000000        0.0000000000        0.0000000000
  11         0.0317667912        3.3679551519        2.5761131019        0.0000000000        0.0000000000        0.0000000000
  11         3.0020457891        3.4089855788        2.6126782942        0.0000000000        0.0000000000        0.0000000000
  11         5.9375368166        3.3790638490        2.6998409561        0.0000000000        0.0000000000        0.0000000000
  11         8.8855012844        3.4468375912        2.7025790475        0.0000000000        0.0000000000        0.0000000000
  11        11.9021624040        3.4228723969        2.5659816017        0.0000000000        0.0000000000        0.0000000000
  11         0.0063695355        3.3397260156       13.1699898564        0.0000000000        0.0000000000        0.0000000000
  11         3.0049720279        3.4630803686       13.0978109339        0.0000000000        0.0000000000        0.0000000000
  11         5.9471185154        3.3306760448       13.2118029987        0.0000000000        0.0000000000        0.0000000000
  11         8.9127006393        3.4253642534       13.1986238910        0.0000000000        0.0000000000        0.0000000000
  11        11.8992230670        3.4181945099       13.1308842295        0.0000000000        0.0000000000        0.0000000000
  11        14.8292233023        3.4187645559       23.6732986793        0.0000000000        0.0000000000        0.0000000000
  11         2.9328120913        3.3859707618       23.6627809928        0.0000000000        0.0000000000        0.0000000000
  11         5.9492461711        3.3802646783       23.6794230347        0.0000000000        0.0000000000        0.0000000000
  11         8.8588915782        3.3688656104       23.7696389326        0.0000000000        0.0000000000        0.0000000000
  11        11.8284075676        3.4406452491       23.7160194806        0.0000000000        0.0000000000        0.0000000000
   8         0.0237191808        1.7801558391        4.1935321149        0.0000000000        0.0000000000        0.0000000000
   8         2.8730593276        1.7188836483        4.1730787270        0.0000000000        0.0000000000        0.0000000000
   8         5.8804532208        1.6057679761        4.1864936792        0.0000000000        0.0000000000        0.0000000000
   8         8.9770204390        1.7308898925        4.1189349873        0.0000000000        0.0000000000        0.0000000000
   8        11.9527662259        1.6465212290        4.2045344817        0.0000000000        0.0000000000        0.0000000000
   8         0.0557154178        1.6202782711       14.7252336006        0.0000000000        0.0000000000        0.0000000000
   8         2.9602263209        1.7395787456       14.6999819078        0.0000000000        0.0000000000        0.0000000000
   8         5.9895250710        1.6268894175       14.7694924023        0.0000000000        0.0000000000        0.0000000000
   8         8.9848513337        1.7806507471       14.7329542870        0.0000000000        0.0000000000        0.0000000000
   8        11.7849523143        1.7203358797       14.7025590969        0.0000000000        0.0000000000        0.0000000000
   8        14.7739461106        1.7887410816       25.2433888820        0.0000000000        0.0000000000        0.0000000000
   8         3.0418418702        1.7476237689       25.2638579591        0.0000000000        0.0000000000        0.0000000000
   8         5.8568532303        1.6528709524       25.3034446670        0.0000000000        0.0000000000        0.0000000000
   8         8.9373162675        1.6253500116       25.3207187658        0.0000000000        0.0000000000        0.0000000000
   8        11.9099716821        1.7961892674       25.2892548907        0.0000000000        0.0000000000        0.0000000000
   8         0.0583068145        1.5705589894        1.0771575172        0.0000000000        0.0000000000        0.0000000000
   8         2.9143044823        1.7495653674        1.0869774045        0.0000000000        0.0000000000        0.0000000000
   8         5.9840873871        1.7361807898        1.1074557693        0.0000000000        0.0000000000        0.0000000000
   8         8.9668074023        1.6729810519        1.0150598252        0.0000000000        0.0000000000        0.0000000000
   8        11.7506361665        1.7632466658        1.0882766632        0.0000000000        0.0000000000        0.0000000000
   8        14.7303715504        1.6498690183       11.5444768694        0.0000000000        0.0000000000        0.0000000000
   8         3.0205312467        1.6853544689       11.6788667411        0.0000000000        0.0000000000        0.0000000000
   8         6.1259622576        1.6381480994       11.5907456585        0.0000000000        0.0000000000        0.0000000000
   8         8.8391173502        1.7355797869       11.6251423700        0.0000000000        0.0000000000        0.0000000000
   8        11.9590598574        1.7654909555       11.5637425648        0.0000000000        0.0000000000        0.0000000000
   8        14.7660285803        1.6062150539       22.1188573430        0.0000000000        0.0000000000        0.0000000000
   8         3.0229696195        1.6630459530       22.1962837924        0.0000000000        0.0000000000        0.0000000000
   8         5.9822965276        1.7243825929       22.1556190631        0.0000000000        0.0000000000        0.0000000000
   8         8.8290588202        1.7236336934       22.1621338685        0.0000000000        0.0000000000        0.0000000000
   8        11.8311072118        1.7853061651       22.1964910958        0.0000000000        0.0000000000        0.0000000000
   8         1.5434621540        4.1474186007        4.1705797476        0.0000000000        0.0000000000        0.0000000000
   8         4.5110618259        4.3001279091        4.1996002313        0.0000000000        0.0000000000        0.0000000000
   8         7.3435281981        4.3117371129        4.1868154207        0.0000000000        0.0000000000        0.0000000000
   8        10.5146880831        4.2690109826        4.1662218937        0.0000000000        0.0000000000        0.0000000000
   8        13.2863530835        4.1856429157        4.2091781502        0.0000000000        0.0000000000        0.0000000000
   8         1.4314530205        4.2906372080       14.7161062851        0.0000000000        0.0000000000        0.0000000000
   8         4.5204408070        4.3096804766       14.7322700914        0.0000000000        0.0000000000        0.0000000000
   8         7.3322540942        4.2477668442       14.7431169611        0.0000000000        0.0000000000        0.0000000000
   8        10.4587424914        4.1627784994       14.7092655650        0.0000000000        0.0000000000        0.0000000000
   8        13.4400410560        4.3347002200       14.7127250431        0.0000000000        0.0000000000        0.0000000000
   8         1.5534100214        4.2360721114       25.2199421117        0.0000000000        0.0000000000        0.0000000000
   8         4.5186094798        4.2036644644       25.3146805075        0.0000000000        0.0000000000        0.0000000000
   8         7.3366414831        4.3188053391       25.2848986972        0.0000000000        0.0000000000        0.0000000000
   8        10.3035192794        4.1537486627       25.3237346230        0.0000000000        0.0000000000        0.0000000000
   8        13.3255880841        4.1370824073       25.2325271237        0.0000000000        0.0000000000        0.0000000000
   8         1.4151935131        4.1882524588        0.9939478627        0.0000000000        0.0000000000        0.0000000000
   8         4.5149409003        4.2411429537        1.1187299292        0.0000000000        0.0000000000        0.0000000000
   8         7.5133912668        4.2940258966        1.0547866824        0.0000000000        0.0000000000        0.0000000000
   8        10.3166896902        4.1843557930        1.0289102460        0.0000000000        0.0000000000        0.0000000000
   8        13.4647396072        4.3085488463        1.0699362506        0.0000000000        0.0000000000        0.0000000000
   8         1.3224253638        4.3072757347       11.6366431599        0.0000000000        0.0000000000        0.0000000000
   8         4.6691079790        4.3150477269       11.6481772821        0.0000000000        0.0000000000        0.0000000000
   8         7.4310461090        4.1839732497       11.5825693096        0.0000000000        0.0000000000        0.0000000000
   8        10.3978060911        4.2786217626       11.6574768175        0.0000000000        0.0000000000        0.0000000000
   8        13.4262693342        4.1840808983       11.5564511948        0.0000000000        0.0000000000        0.0000000000
   8         1.3901656313        4.3284766457       22.1100740419        0.0000000000        0.0000000000        0.0000000000
   8         4.4039176520        4.2047574601       22.1918134145        0.0000000000        0.0000000000        0.0000000000
   8         7.4101053537        4.1629768209       22.1188310558        0.0000000000        0.0000000000        0.0000000000
   8        10.3015674175        4.2391044333       22.1992469684        0.0000000000        0.0000000000        0.0000000000
   8        13.4504917652        4.2760460460       22.1045305575        0.0000000000        0.0000000000        0.0000000000
   8         1.5459859132        0.9388136395        6.3512240337        0.0000000000        0.0000000000        0.0000000000
   8         4.5082547097        0.7932019174        6.3435807365        0.0000000000        0.0000000000        0.0000000000
   8         7.3406479435        0.7865004731        6.3514547614        0.0000000000        0.0000000000        0.0000000000
   8        10.5051599746        0.8046560407        6.3174694409        0.0000000000        0.0000000000        0.0000000000
   8        13.2783230073        0.9150805495        6.2973053261        0.0000000000        0.0000000000        0.0000000000
   8         1.4220404869        0.8276521230       16.8810086335        0.0000000000        0.0000000000        0.0000000000
   8         4.5187462718        0.8011292746       16.8754274806        0.0000000000        0.0000000000        0.0000000000
   8         7.3268445481        0.8296349701       16.8869655445        0.0000000000        0.0000000000        0.0000000000
   8        10.4530432892        0.9487072398       16.8850096240        0.0000000000        0.0000000000        0.0000000000
   8        13.4372526256        0.7790544824       16.8723826376        0.0000000000        0.0000000000        0.0000000000
   8         1.5552974860        0.8721790984       27.4680929275        0.0000000000        0.0000000000        0.0000000000
   8         4.5166022432        0.9073151742       27.3708354231        0.0000000000        0.0000000000        0.0000000000
   8         7.3425065432        0.7992278094       27.3902140913        0.0000000000        0.0000000000        0.0000000000
   8        10.3113680256        0.9685012761       27.3907043032        0.0000000000        0.0000000000        0.0000000000
   8        13.3407066061        0.9753644565       27.4534645520        0.0000000000        0.0000000000        0.0000000000
   8         1.3860340493        0.9190835224       30.6252040949        0.0000000000        0.0000000000        0.0000000000
   8         4.5044255301        0.9148846237       30.4826176521        0.0000000000        0.0000000000        0.0000000000
   8         7.5003662064        0.8520810038       30.5082997286        0.0000000000        0.0000000000        0.0000000000
   8        10.3094883582        0.9328813551       30.5504028364        0.0000000000        0.0000000000        0.0000000000
   8        13.4533872875        0.7901447709       30.5780787830        0.0000000000        0.0000000000        0.0000000000
   8         1.3405017357        0.7821140068        9.4291353537        0.0000000000        0.0000000000        0.0000000000
   8         4.6732905143        0.7845989271        9.4419657784        0.0000000000        0.0000000000        0.0000000000
   8         7.4182665536        0.9112419161        9.5162913087        0.0000000000        0.0000000000        0.0000000000
   8        10.3620284983        0.8328916235        9.4015190795        0.0000000000        0.0000000000        0.0000000000
   8        13.4236829571        0.9252400799        9.4678651962        0.0000000000        0.0000000000        0.0000000000
   8         1.3953366617        0.7889700453       20.0184295591        0.0000000000        0.0000000000        0.0000000000
   8         4.3999513578        0.8887685904       19.9565059281        0.0000000000        0.0000000000        0.0000000000
   8         7.3898548901        0.9435066464       20.0516411148        0.0000000000        0.0000000000        0.0000000000
   8        10.3012338215        0.8741457490       19.9513909206        0.0000000000        0.0000000000        0.0000000000
   8        13.4494335436        0.8681484009       19.9940716636        0.0000000000        0.0000000000        0.0000000000
   8         0.0254572672        3.3046970349        6.3109679222        0.0000000000        0.0000000000        0.0000000000
   8         2.8775939706        3.3482275546        6.3274340693        0.0000000000        0.0000000000        0.0000000000
   8         5.8895185568        3.4878160628        6.3537473539        0.0000000000        0.0000000000        0.0000000000
   8         8.9850374587        3.3619484353        6.4029714243        0.0000000000        0.0000000000        0.0000000000
   8        11.9513097328        3.4495541032        6.2973705403        0.0000000000        0.0000000000        0.0000000000
   8         0.0540633084        3.4821032629       16.8682667692        0.0000000000        0.0000000000        0.0000000000
   8         2.9422371872        3.4196285152       16.9182524992        0.0000000000        0.0000000000        0.0000000000
   8         5.9793168750        3.4724663006       16.8604618037        0.0000000000        0.0000000000        0.0000000000
   8         8.9764280260        3.3227566831       16.8616244371        0.0000000000        0.0000000000        0.0000000000
   8        11.7830123389        3.3923714694       16.8858950700        0.0000000000        0.0000000000        0.0000000000
   8        14.7810884713        3.3351951203       27.4420656465        0.0000000000        0.0000000000        0.0000000000
   8         3.0416939222        3.3608218397       27.4202270377        0.0000000000        0.0000000000        0.0000000000
   8         5.8557896606        3.4637523531       27.3832322226        0.0000000000        0.0000000000        0.0000000000
   8         8.9401729006        3.4895702786       27.3703237839        0.0000000000        0.0000000000        0.0000000000
   8        11.9256262346        3.3262982962       27.4314698285        0.0000000000        0.0000000000        0.0000000000
   8         0.0611923339        3.5049420301       30.5825382695        0.0000000000        0.0000000000        0.0000000000
   8         2.9351708927        3.4057442472       30.4924564988        0.0000000000        0.0000000000        0.0000000000
   8         5.9839494506        3.4287023773       30.4793348077        0.0000000000        0.0000000000        0.0000000000
   8         8.9661343029        3.4604662075       30.5425981519        0.0000000000        0.0000000000        0.0000000000
   8        11.7498001108        3.3506405325       30.5092679304        0.0000000000        0.0000000000        0.0000000000
   8        14.7374409496        3.4646917027        9.4778876336        0.0000000000        0.0000000000        0.0000000000
   8         3.0167794588        3.4215878765        9.3859916151        0.0000000000        0.0000000000        0.0000000000
   8         6.1180875748        3.4532217126        9.5217586243        0.0000000000        0.0000000000        0.0000000000
   8         8.8349056144        3.3532704543        9.4650960823        0.0000000000        0.0000000000        0.0000000000